 Q-Chem 6.3 (devel), Q-Chem, Inc., Pleasanton, CA (2025)
 Q-Chem 6.3.0 for Intel X86 EM64T Linux

User input:
--------------------------------------------------------------

$molecule
0 1
C         -2.66800        1.97355        0.14073
C         -3.78138        1.18140       -0.15960
C         -3.62991       -0.19719       -0.34359
C         -2.36505       -0.78364       -0.22724
C         -1.25169        0.00849        0.07324
C         -1.40316        1.38708        0.25723
H         -2.78516        3.04009        0.28298
H         -4.75991        1.63510       -0.24961
H         -4.49125       -0.81002       -0.57595
H         -2.24787       -1.85015       -0.36966
H         -0.27317       -0.44519        0.16337
H         -0.54184        1.99990        0.48968
$end

$rem
jobtype          =    force
method            =   pbe0
basis            =    6-31g*
mem_total        =    60000
sym_ignore       =    1
scf_algorithm    =    diis_gdm
cis_n_roots      =    5
cis_singlets     =    true
CIS_TRIPLETS     =   false
CIS_STATE_DERIV  =  1
YS_DEBUG = 1
ESP_CHARGES = 1
$end

--------------------------------------------------------------

             Standard Nuclear Orientation (Angstroms)
    I     Atom           X                Y                Z
 ----------------------------------------------------------------
    1      C      -2.6680000000     1.9735500000     0.1407300000
    2      C      -3.7813800000     1.1814000000    -0.1596000000
    3      C      -3.6299100000    -0.1971900000    -0.3435900000
    4      C      -2.3650500000    -0.7836400000    -0.2272400000
    5      C      -1.2516900000     0.0084900000     0.0732400000
    6      C      -1.4031600000     1.3870800000     0.2572300000
    7      H      -2.7851600000     3.0400900000     0.2829800000
    8      H      -4.7599100000     1.6351000000    -0.2496100000
    9      H      -4.4912500000    -0.8100200000    -0.5759500000
   10      H      -2.2478700000    -1.8501500000    -0.3696600000
   11      H      -0.2731700000    -0.4451900000     0.1633700000
   12      H      -0.5418400000     1.9999000000     0.4896800000
 ----------------------------------------------------------------

   11    -231.9638089515      6.92e-09  Convergence criterion met
 Total energy =  -231.96380895

         TDDFT/TDA Excitation Energies
 ---------------------------------------------------

 Excited state   1: excitation energy (eV) =       5.6298
 Total energy for state   1:                  -231.75691735 au
    Multiplicity: Singlet
    Trans. Mom.: -0.0001 X   0.0000 Y   0.0000 Z
    Strength   :     0.0000000015
    D(   20) --> V(    1) amplitude =  0.6317
    D(   20) --> V(    2) amplitude =  0.3161
    D(   21) --> V(    1) amplitude =  0.3161
    D(   21) --> V(    2) amplitude = -0.6316

 Excited state   2: excitation energy (eV) =       6.6292
 Total energy for state   2:                  -231.72019017 au
    Multiplicity: Singlet
    Trans. Mom.: -0.0001 X   0.0002 Y  -0.0000 Z
    Strength   :     0.0000000106
    D(   20) --> V(    1) amplitude = -0.3123
    D(   20) --> V(    2) amplitude =  0.6239
    D(   21) --> V(    1) amplitude =  0.6240
    D(   21) --> V(    2) amplitude =  0.3122

 Excited state   3: excitation energy (eV) =       7.9230
 Total energy for state   3:                  -231.67264341 au
    Multiplicity: Singlet
    Trans. Mom.: -0.0002 X   0.0001 Y  -0.0000 Z
    Strength   :     0.0000000070
    D(   18) --> V(    1) amplitude = -0.3157
    D(   18) --> V(    2) amplitude =  0.6290
    D(   19) --> V(    1) amplitude =  0.6306
    D(   19) --> V(    2) amplitude =  0.3152

 Excited state   4: excitation energy (eV) =       8.0330
 Total energy for state   4:                  -231.66860224 au
    Multiplicity: Singlet
    Trans. Mom.:  0.0007 X  -0.0000 Y   0.0013 Z
    Strength   :     0.0000004404
    D(   18) --> V(    2) amplitude = -0.6988
    D(   19) --> V(    1) amplitude =  0.7019

 Excited state   5: excitation energy (eV) =       8.0330
 Total energy for state   5:                  -231.66860199 au
    Multiplicity: Singlet
    Trans. Mom.: -0.0004 X   0.0011 Y   0.0014 Z
    Strength   :     0.0000006126
    D(   18) --> V(    1) amplitude =  0.7049
    D(   19) --> V(    2) amplitude =  0.6958

 Excited state   6: excitation energy (eV) =       8.0423
 Total energy for state   6:                  -231.66825817 au
    Multiplicity: Singlet
    Trans. Mom.:  0.0258 X   0.0236 Y  -0.1603 Z
    Strength   :     0.0053060944
    D(   18) --> V(    1) amplitude = -0.6247
    D(   18) --> V(    2) amplitude = -0.3202
    D(   19) --> V(    1) amplitude = -0.3114
    D(   19) --> V(    2) amplitude =  0.6363

 Excited state   7: excitation energy (eV) =       8.0861
 Total energy for state   7:                  -231.66664897 au
    Multiplicity: Singlet
    Trans. Mom.:  2.0655 X  -0.5135 Y   0.2573 Z
    Strength   :     0.9105078593
    D(   20) --> V(    1) amplitude = -0.4312
    D(   20) --> V(    2) amplitude =  0.5243
    D(   21) --> V(    1) amplitude = -0.5242
    D(   21) --> V(    2) amplitude = -0.4312

 Excited state   8: excitation energy (eV) =       8.0862
 Total energy for state   8:                  -231.66664552 au
    Multiplicity: Singlet
    Trans. Mom.: -0.4633 X  -2.0572 Y  -0.3863 Z
    Strength   :     0.9105380596
    D(   20) --> V(    1) amplitude =  0.5243
    D(   20) --> V(    2) amplitude =  0.4313
    D(   21) --> V(    1) amplitude = -0.4312
    D(   21) --> V(    2) amplitude =  0.5243

 ---------------------------------------------------

                    Orbital Energies (a.u.)
 --------------------------------------------------------------

 Alpha MOs
 -- Occupied --
-10.2374 -10.2371 -10.2371 -10.2365 -10.2365 -10.2362  -0.8712  -0.7624
 -0.7624  -0.6162  -0.6162  -0.5345  -0.4744  -0.4515  -0.4294  -0.4294
 -0.3730  -0.3502  -0.3502  -0.2566  -0.2566

          Ground-State Mulliken Net Atomic Charges

     Atom                 Charge (a.u.)
  ----------------------------------------
      1 C                    -0.169291
      2 C                    -0.169242
      3 C                    -0.169167
      4 C                    -0.169291
      5 C                    -0.169243
      6 C                    -0.169166
      7 H                     0.169224
      8 H                     0.169211
      9 H                     0.169264
     10 H                     0.169225
     11 H                     0.169212
     12 H                     0.169264
  ----------------------------------------
  Sum of atomic charges =     0.000000

                    Cartesian Multipole Moments
 -----------------------------------------------------------------
    Charge (ESU x 10^10)
                 0.0000
    Dipole Moment (Debye)
         X       0.0000      Y       0.0000      Z       0.0000
       Tot       0.0000
    Quadrupole Moments (Debye-Ang)
        XX     -31.0318     XY      -0.1888     YY     -31.0055
        XZ       1.2504     YZ       1.1663     ZZ     -38.5380

 Total job time:  8.52s(wall), 123.36s(cpu)
        *  Thank you very much for using Q-Chem.  Have a nice day.  *
